lammpslib autogenerated data file

30 atoms
3 atom types
18 bonds
1 bond types
18 angles
1 angle types

  0.00000000e+00   5.08200000e+00 xlo xhi
  0.00000000e+00   4.40114110e+00 ylo yhi
  0.00000000e+00   1.73100000e+01 zlo zhi
 -2.54100000e+00   0.00000000e+00   0.00000000e+00 xy xz yz

Masses

1 22.9897692741
2 14.0069999964
3 15.9989999959

Atoms # full

1 0 1   0.00000000e+00   0.00000000e+00   0.00000000e+00   0.00000000e+00
2 1 1   0.00000000e+00   0.00000000e+00   0.00000000e+00   8.65500000e+00
3 2 1   0.00000000e+00   2.54100000e+00   1.46704703e+00   5.77000000e+00
4 3 1   0.00000000e+00   2.54100000e+00   1.46704703e+00   1.44250000e+01
5 4 1   0.00000000e+00   9.82214310e-16   2.93409407e+00   1.15400000e+01
6 5 1   0.00000000e+00   9.82214310e-16   2.93409407e+00   2.88500000e+00
7 6 2   0.00000000e+00   0.00000000e+00   0.00000000e+00   4.32750000e+00
8 7 2   0.00000000e+00   2.54100000e+00   1.46704703e+00   1.00975000e+01
9 8 2   0.00000000e+00   9.82214310e-16   2.93409407e+00   1.58675000e+01
10 9 2   0.00000000e+00   0.00000000e+00   0.00000000e+00   1.29825000e+01
11 10 2   0.00000000e+00   2.54100000e+00   1.46704703e+00   1.44250000e+00
12 11 2   0.00000000e+00   9.82214310e-16   2.93409407e+00   7.21250000e+00
13 6 3   0.00000000e+00   1.25000000e+00   0.00000000e+00   4.32750000e+00
14 6 3   0.00000000e+00  -6.25000000e-01   1.08253175e+00   4.32750000e+00
15 6 3   0.00000000e+00   1.91600000e+00   3.31860935e+00   4.32750000e+00
16 7 3   0.00000000e+00   3.79100000e+00   1.46704703e+00   1.00975000e+01
17 7 3   0.00000000e+00   1.91600000e+00   2.54957879e+00   1.00975000e+01
18 7 3   0.00000000e+00   1.91600000e+00   3.84515279e-01   1.00975000e+01
19 8 3   0.00000000e+00   1.25000000e+00   2.93409407e+00   1.58675000e+01
20 8 3   0.00000000e+00  -6.25000000e-01   4.01662582e+00   1.58675000e+01
21 8 3   0.00000000e+00  -6.25000000e-01   1.85156231e+00   1.58675000e+01
22 9 3   0.00000000e+00   3.83200000e+00   0.00000000e+00   1.29825000e+01
23 9 3   0.00000000e+00  -1.91600000e+00   3.31860935e+00   1.29825000e+01
24 9 3   0.00000000e+00   6.25000000e-01   1.08253175e+00   1.29825000e+01
25 10 3   0.00000000e+00   1.29100000e+00   1.46704703e+00   1.44250000e+00
26 10 3   0.00000000e+00   3.16600000e+00   3.84515279e-01   1.44250000e+00
27 10 3   0.00000000e+00   3.16600000e+00   2.54957879e+00   1.44250000e+00
28 11 3   0.00000000e+00  -1.25000000e+00   2.93409407e+00   7.21250000e+00
29 11 3   0.00000000e+00   6.25000000e-01   1.85156231e+00   7.21250000e+00
30 11 3   0.00000000e+00   6.25000000e-01   4.01662582e+00   7.21250000e+00

Bonds

1 1 7 13
2 1 7 14
3 1 7 15
4 1 8 16
5 1 8 17
6 1 8 18
7 1 9 19
8 1 9 20
9 1 9 21
10 1 10 24
11 1 10 22
12 1 10 23
13 1 11 25
14 1 11 26
15 1 11 27
16 1 12 28
17 1 12 29
18 1 12 30

Angles

1 1 13 7 14
2 1 13 7 15
3 1 14 7 15
4 1 16 8 17
5 1 16 8 18
6 1 17 8 18
7 1 19 9 20
8 1 19 9 21
9 1 20 9 21
10 1 22 10 24
11 1 22 10 23
12 1 23 10 24
13 1 25 11 26
14 1 25 11 27
15 1 26 11 27
16 1 28 12 29
17 1 28 12 30
18 1 29 12 30
